! TOUCHSTONE file generated by CST MICROWAVE STUDIO
! Date and time: Thu Jan 18 01:46:51 2024
! Project name: CPpatch.cst
! Parameters = {AirCoaxRadius=1.5; ChamferAngle=32; ChamferWidth=4.6; FeedYoffset=8; PatchLength=28.6; PatchWidth=28.6}
! Header version: 2018
! Port assignment regex: !\s*Touchstone port\s*([0-9]+)\s*=\s*(CST MWS port|CST DS port)\s*([0-9]+|Zmin|Zmax)\s*\(\"(.*)\"\)(\s*mode\s*([0-9]+))?.*
! Touchstone port assignment:
! Touchstone port 1 = CST MWS port 1 ("")
# GHz S DB R 50
1.45                 -0.07359141        121.7698
1.452                 -0.0728018        121.6457
1.454                -0.07212441        121.5204
1.456                -0.07159454         121.394
1.458                 -0.0712434        121.2668
1.46                 -0.07108916         121.139
1.462                -0.07114223         121.011
1.464                 -0.0714031        120.8831
1.466                -0.07186128        120.7556
1.468                -0.07249848        120.6286
1.47                 -0.07328822        120.5025
1.472                -0.07419494        120.3774
1.474                -0.07518064        120.2535
1.476                -0.07620487        120.1308
1.478                -0.07722176        120.0094
1.48                 -0.07819085        119.8891
1.482                -0.07907305          119.77
1.484                -0.07983239        119.6518
1.486                -0.08044314        119.5343
1.488                -0.08088213        119.4172
1.49                 -0.08114119        119.3004
1.492                -0.08121317        119.1836
1.494                -0.08110606        119.0664
1.496                -0.08083434        118.9486
1.498                -0.08041913        118.8301
1.5                  -0.07989152        118.7106
1.502                -0.07928364        118.5899
1.504                -0.07863417        118.4681
1.506                 -0.0779798         118.345
1.508                -0.07736228        118.2208
1.51                 -0.07681652        118.0954
1.512                -0.07637412        117.9691
1.514                -0.07606429        117.8419
1.516                -0.07590474        117.7141
1.518                -0.07591298         117.586
1.52                 -0.07609017        117.4578
1.522                -0.07643588        117.3296
1.524                -0.07693761        117.2018
1.526                -0.07757774        117.0746
1.528                -0.07833318        116.9481
1.53                 -0.07917291        116.8225
1.532                -0.08006516        116.6978
1.534                 -0.0809736        116.5742
1.536                -0.08186136        116.4515
1.538                -0.08269865        116.3298
1.54                 -0.08344978        116.2089
1.542                -0.08409099        116.0887
1.544                -0.08460172        115.9689
1.546                -0.08496622        115.8494
1.548                -0.08517623          115.73
1.55                 -0.08523555        115.6105
1.552                -0.08514805        115.4905
1.554                -0.08493268        115.3699
1.556                -0.08460626        115.2486
1.558                -0.08419693        115.1264
1.56                 -0.08373438        115.0032
1.562                -0.08324974         114.879
1.564                -0.08277516        114.7537
1.566                -0.08234325        114.6274
1.568                -0.08198298        114.5001
1.57                 -0.08172166        114.3721
1.572                -0.08157882        114.2434
1.574                 -0.0815691        114.1143
1.576                -0.08170325        113.9848
1.578                -0.08198137        113.8554
1.58                 -0.08239966         113.726
1.582                  -0.082946         113.597
1.584                -0.08360312        113.4685
1.586                -0.08435074        113.3407
1.588                -0.08515899        113.2135
1.59                 -0.08600151        113.0872
1.592                -0.08684857        112.9617
1.594                -0.08767018         112.837
1.596                -0.08843624         112.713
1.598                -0.08912544        112.5897
1.6                  -0.08971355        112.4668
1.602                -0.09018566        112.3442
1.604                -0.09053127        112.2218
1.606                -0.09074811        112.0994
1.608                -0.09083748        111.9767
1.61                 -0.09080728        111.8536
1.612                -0.09067331        111.7298
1.614                -0.09045378        111.6054
1.616                 -0.0901717        111.4802
1.618                -0.08985402         111.354
1.62                 -0.08952712        111.2269
1.622                -0.08921946        111.0989
1.624                -0.08895759          110.97
1.626                -0.08876479        110.8403
1.628                -0.08866375        110.7099
1.63                   -0.088669         110.579
1.632                -0.08879259        110.4477
1.634                -0.08903954        110.3162
1.636                -0.08941013        110.1847
1.638                -0.08989738        110.0533
1.64                 -0.09049138        109.9222
1.642                -0.09117469        109.7915
1.644                -0.09192837        109.6614
1.646                -0.09272822        109.5319
1.648                -0.09354797         109.403
1.65                 -0.09436456        109.2748
1.652                -0.09515156        109.1472
1.654                -0.09588544        109.0202
1.656                -0.09654716        108.8936
1.658                -0.09711849        108.7673
1.66                 -0.09758831        108.6412
1.662                -0.09795062        108.5151
1.664                -0.09820217        108.3889
1.666                -0.09834838        108.2624
1.668                -0.09839793        108.1355
1.67                 -0.09836546        108.0079
1.672                -0.09826749        107.8796
1.674                -0.09812614        107.7506
1.676                 -0.0979641        107.6207
1.678                -0.09780502        107.4899
1.68                 -0.09767292        107.3584
1.682                -0.09759067         107.226
1.684                -0.09757736         107.093
1.686                -0.09764972        106.9593
1.688                -0.09782063        106.8253
1.69                 -0.09809871        106.6908
1.692                -0.09848621        106.5563
1.694                -0.09898061        106.4217
1.696                -0.09957561        106.2873
1.698                 -0.1002601        106.1531
1.7                   -0.1010163        106.0193
1.702                 -0.1018271        105.8859
1.704                 -0.1026712        105.7531
1.706                 -0.1035271        105.6208
1.708                 -0.1043704         105.489
1.71                  -0.1051807        105.3577
1.712                 -0.1059375        105.2268
1.714                 -0.1066241        105.0962
1.716                  -0.107229        104.9659
1.718                 -0.1077404        104.8355
1.72                  -0.1081561        104.7051
1.722                  -0.108477        104.5744
1.724                 -0.1087066        104.4434
1.726                 -0.1088543        104.3119
1.728                 -0.1089361        104.1797
1.73                  -0.1089668        104.0468
1.732                 -0.1089681        103.9132
1.734                 -0.1089581        103.7788
1.736                 -0.1089608        103.6435
1.738                 -0.1089957        103.5075
1.74                  -0.1090833        103.3707
1.742                 -0.1092394        103.2332
1.744                 -0.1094788        103.0953
1.746                 -0.1098112        102.9569
1.748                 -0.1102421        102.8182
1.75                  -0.1107732        102.6793
1.752                    -0.1114        102.5404
1.754                 -0.1121175        102.4017
1.756                 -0.1129112        102.2631
1.758                 -0.1137674        102.1248
1.76                  -0.1146684        101.9869
1.762                 -0.1155951        101.8495
1.764                  -0.116527        101.7124
1.766                 -0.1174446        101.5758
1.768                 -0.1183269        101.4395
1.77                  -0.1191598        101.3035
1.772                 -0.1199268        101.1676
1.774                  -0.120617        101.0319
1.776                 -0.1212254        100.8961
1.778                 -0.1217497        100.7601
1.78                  -0.1221878        100.6238
1.782                 -0.1225495        100.4871
1.784                 -0.1228432        100.3498
1.786                 -0.1230828        100.2118
1.788                 -0.1232823        100.0731
1.79                  -0.1234631        99.93369
1.792                  -0.123642        99.79343
1.794                 -0.1238392        99.65238
1.796                 -0.1240725        99.51055
1.798                 -0.1243608        99.36801
1.8                    -0.124718        99.22483
1.802                 -0.1251548        99.08112
1.804                 -0.1256804        98.93698
1.806                 -0.1262983        98.79254
1.808                 -0.1270071        98.64792
1.81                  -0.1278051        98.50324
1.812                 -0.1286833        98.35861
1.814                 -0.1296294        98.21412
1.816                 -0.1306301        98.06984
1.818                  -0.131669        97.92583
1.82                   -0.132728        97.78211
1.822                 -0.1337886        97.63868
1.824                 -0.1348331        97.49553
1.826                 -0.1358444        97.35262
1.828                 -0.1368086        97.20984
1.83                  -0.1377119        97.06711
1.832                 -0.1385483        96.92433
1.834                 -0.1393113        96.78139
1.836                 -0.1399986        96.63815
1.838                 -0.1406155         96.4945
1.84                  -0.1411675        96.35032
1.842                 -0.1416651        96.20551
1.844                 -0.1421216        96.05999
1.846                 -0.1425521         95.9137
1.848                 -0.1429742        95.76657
1.85                  -0.1434055        95.61865
1.852                 -0.1438638        95.46989
1.854                 -0.1443656        95.32035
1.856                 -0.1449272        95.17009
1.858                 -0.1455595        95.01919
1.86                  -0.1462739        94.86775
1.862                 -0.1470742        94.71586
1.864                 -0.1479661        94.56364
1.866                 -0.1489458        94.41121
1.868                 -0.1500096        94.25866
1.87                  -0.1511481         94.1061
1.872                 -0.1523505         93.9536
1.874                 -0.1536012        93.80123
1.876                 -0.1548856        93.64905
1.878                 -0.1561855        93.49704
1.88                   -0.157485        93.34522
1.882                 -0.1587668        93.19354
1.884                 -0.1600152        93.04194
1.886                 -0.1612193        92.89035
1.888                  -0.162366        92.73868
1.89                  -0.1634497        92.58683
1.892                 -0.1644671        92.43467
1.894                 -0.1654183        92.28208
1.896                 -0.1663071        92.12897
1.898                 -0.1671407        91.97521
1.9                   -0.1679293        91.82072
1.902                 -0.1686894        91.66542
1.904                 -0.1694325        91.50924
1.906                 -0.1701777        91.35217
1.908                 -0.1709412         91.1942
1.91                  -0.1717394        91.03532
1.912                 -0.1725893        90.87561
1.914                 -0.1735035         90.7151
1.916                 -0.1744946        90.55389
1.918                 -0.1755711        90.39207
1.92                  -0.1767373        90.22974
1.922                 -0.1779946        90.06697
1.924                 -0.1793402        89.90392
1.926                 -0.1807701        89.74065
1.928                 -0.1822739        89.57728
1.93                  -0.1838403        89.41385
1.932                 -0.1854545        89.25043
1.934                 -0.1871025        89.08704
1.936                 -0.1887665        88.92371
1.938                 -0.1904311         88.7604
1.94                  -0.1920785        88.59708
1.942                 -0.1936975        88.43368
1.944                  -0.195276        88.27011
1.946                 -0.1968039        88.10631
1.948                 -0.1982752        87.94213
1.95                  -0.1996888        87.77749
1.952                 -0.2010465        87.61225
1.954                 -0.2023523         87.4463
1.956                  -0.203614        87.27958
1.958                 -0.2048432        87.11193
1.96                  -0.2060554        86.94334
1.962                  -0.207264        86.77374
1.964                  -0.208486         86.6031
1.966                 -0.2097392        86.43142
1.968                 -0.2110399        86.25871
1.97                  -0.2124019        86.08503
1.972                 -0.2138384        85.91045
1.974                 -0.2153606        85.73501
1.976                 -0.2169766        85.55884
1.978                 -0.2186892        85.38201
1.98                     -0.2205        85.20465
1.982                 -0.2224049        85.02684
1.984                 -0.2243982        84.84867
1.986                 -0.2264698        84.67023
1.988                 -0.2286085        84.49157
1.99                  -0.2307995        84.31274
1.992                  -0.233029        84.13377
1.994                 -0.2352774        83.95465
1.996                 -0.2375322        83.77533
1.998                 -0.2397773         83.5958
2                     -0.2420002        83.41598
2.002                 -0.2441898        83.23576
2.004                 -0.2463382        83.05506
2.006                  -0.248443        82.87374
2.008                 -0.2505001        82.69173
2.01                  -0.2525139        82.50887
2.012                 -0.2544916        82.32507
2.014                   -0.25644        82.14021
2.016                 -0.2583746        81.95423
2.018                 -0.2603075        81.76705
2.02                  -0.2622564        81.57862
2.022                 -0.2642376        81.38892
2.024                 -0.2662683        81.19795
2.026                 -0.2683651        81.00574
2.028                 -0.2705432        80.81233
2.03                  -0.2728152         80.6178
2.032                 -0.2751905        80.42219
2.034                 -0.2776755        80.22563
2.036                 -0.2802753        80.02822
2.038                 -0.2829873        79.83002
2.04                  -0.2858103        79.63117
2.042                  -0.288735        79.43173
2.044                 -0.2917521        79.23177
2.046                 -0.2948484        79.03136
2.048                 -0.2980097        78.83053
2.05                  -0.3012182        78.62926
2.052                 -0.3044607        78.42759
2.054                 -0.3077198        78.22542
2.056                 -0.3109819        78.02275
2.058                 -0.3142333        77.81943
2.06                  -0.3174655         77.6154
2.062                 -0.3206709        77.41055
2.064                 -0.3238468        77.20474
2.066                 -0.3269935        76.99783
2.068                 -0.3301149        76.78971
2.07                  -0.3332205        76.58026
2.072                 -0.3363195        76.36936
2.074                 -0.3394292        76.15695
2.076                 -0.3425638        75.94292
2.078                 -0.3457409        75.72724
2.08                  -0.3489801        75.50987
2.082                 -0.3522993        75.29084
2.084                 -0.3557169        75.07014
2.086                 -0.3592492        74.84786
2.088                 -0.3629092        74.62402
2.09                  -0.3667077        74.39873
2.092                  -0.370651        74.17209
2.094                 -0.3747441        73.94418
2.096                 -0.3789869        73.71511
2.098                 -0.3833725        73.48496
2.1                   -0.3878952        73.25381
2.102                 -0.3925437        73.02175
2.104                 -0.3973044        72.78882
2.106                 -0.4021621        72.55502
2.108                 -0.4071001        72.32037
2.11                  -0.4121037        72.08485
2.112                 -0.4171544        71.84838
2.114                  -0.422239         71.6109
2.116                 -0.4273456        71.37228
2.118                 -0.4324636        71.13243
2.12                  -0.4375886         70.8912
2.122                 -0.4427167        70.64844
2.124                 -0.4478531        70.40401
2.126                 -0.4530022        70.15776
2.128                 -0.4581754        69.90955
2.13                  -0.4633838        69.65924
2.132                 -0.4686488        69.40676
2.134                 -0.4739859        69.15199
2.136                 -0.4794178        68.89487
2.138                 -0.4849658        68.63538
2.14                  -0.4906524        68.37352
2.142                 -0.4964973        68.10928
2.144                 -0.5025174        67.84273
2.146                 -0.5087328        67.57392
2.148                 -0.5151533        67.30293
2.15                   -0.521789        67.02984
2.152                 -0.5286435        66.75476
2.154                 -0.5357188        66.47778
2.156                 -0.5430117        66.19898
2.158                 -0.5505143        65.91845
2.16                  -0.5582155        65.63624
2.162                 -0.5661022        65.35237
2.164                  -0.574161        65.06688
2.166                 -0.5823736         64.7797
2.168                  -0.590725        64.49083
2.17                  -0.5991966        64.20015
2.172                 -0.6077793        63.90758
2.174                 -0.6164593        63.61297
2.176                 -0.6252292        63.31614
2.178                 -0.6340862        63.01695
2.18                  -0.6430308         62.7152
2.182                 -0.6520681        62.41074
2.184                 -0.6612096        62.10334
2.186                 -0.6704694        61.79279
2.188                 -0.6798672        61.47905
2.19                  -0.6894259        61.16186
2.192                 -0.6991695        60.84111
2.194                 -0.7091276        60.51677
2.196                 -0.7193281        60.18878
2.198                 -0.7297972        59.85706
2.2                   -0.7405649        59.52164
2.202                 -0.7516557        59.18256
2.204                 -0.7630922        58.83981
2.206                 -0.7748911        58.49351
2.208                 -0.7870683        58.14372
2.21                  -0.7996337        57.79051
2.212                 -0.8125919        57.43399
2.214                 -0.8259438        57.07424
2.216                 -0.8396858         56.7113
2.218                 -0.8538097        56.34521
2.22                  -0.8683054        55.97595
2.222                 -0.8831596        55.60352
2.224                 -0.8983599        55.22782
2.226                 -0.9138927        54.84884
2.228                 -0.9297448        54.46639
2.23                  -0.9459068        54.08029
2.232                 -0.9623732        53.69035
2.234                 -0.9791408        53.29631
2.236                 -0.9962135          52.898
2.238                  -1.013601         52.4951
2.24                   -1.031318        52.08733
2.242                  -1.049387         51.6744
2.244                  -1.067833        51.25613
2.246                  -1.086694         50.8322
2.248                  -1.106003        50.40241
2.25                   -1.125804        49.96656
2.252                  -1.146144         49.5245
2.254                  -1.167069        49.07609
2.256                  -1.188626        48.62126
2.258                  -1.210864        48.15994
2.26                   -1.233827        47.69212
2.262                  -1.257558        47.21779
2.264                  -1.282097          46.737
2.266                  -1.307475        46.24979
2.268                  -1.333725         45.7562
2.27                   -1.360867        45.25631
2.272                  -1.388923        44.75013
2.274                  -1.417905        44.23769
2.276                  -1.447823        43.71897
2.278                  -1.478683        43.19394
2.28                    -1.51049        42.66251
2.282                   -1.54325        42.12452
2.284                  -1.576962         41.5798
2.286                   -1.61164        41.02813
2.288                   -1.64729        40.46918
2.29                   -1.683934        39.90265
2.292                  -1.721593        39.32815
2.294                  -1.760299        38.74527
2.296                  -1.800097        38.15358
2.298                  -1.841036        37.55262
2.3                     -1.88318        36.94195
2.302                  -1.926604        36.32113
2.304                   -1.97139        35.68971
2.306                  -2.017632        35.04732
2.308                  -2.065433        34.39357
2.31                   -2.114902        33.72817
2.312                  -2.166157        33.05082
2.314                   -2.21932        32.36134
2.316                  -2.274516        31.65956
2.318                   -2.33187        30.94538
2.32                   -2.391511        30.21874
2.322                  -2.453564        29.47964
2.324                  -2.518153        28.72809
2.326                    -2.5854        27.96416
2.328                  -2.655424         27.1879
2.33                    -2.72834        26.39939
2.332                   -2.80426        25.59869
2.334                  -2.883296        24.78583
2.336                  -2.965558        23.96082
2.338                   -3.05116        23.12364
2.34                   -3.140218        22.27418
2.342                  -3.232858        21.41232
2.344                  -3.329209        20.53788
2.346                  -3.429417        19.65059
2.348                  -3.533644        18.75019
2.35                   -3.642072        17.83634
2.352                  -3.754899        16.90871
2.354                  -3.872354        15.96695
2.356                  -3.994689        15.01074
2.358                  -4.122191         14.0398
2.36                   -4.255167        13.05393
2.362                   -4.39397        12.05304
2.364                  -4.538974        11.03717
2.366                   -4.69059        10.00655
2.368                   -4.84926        8.961617
2.37                   -5.015452        7.903066
2.372                  -5.189667        6.831877
2.374                  -5.372423        5.749354
2.376                   -5.56426        4.657164
2.378                  -5.765735        3.557373
2.38                   -5.977415        2.452486
2.382                   -6.19987        1.345476
2.384                  -6.433669       0.2398198
2.386                  -6.679365      -0.8604614
2.388                  -6.937499       -1.950773
2.39                   -7.208577       -3.025909
2.392                  -7.493063       -4.080021
2.394                  -7.791364       -5.106587
2.396                  -8.103815       -6.098386
2.398                  -8.430655       -7.047475
2.4                    -8.772008       -7.945186
2.402                  -9.127847       -8.782135
2.404                  -9.497971       -9.548264
2.406                  -9.881957       -10.23292
2.408                  -10.27912         -10.825
2.41                   -10.68848       -11.31314
2.412                  -11.10867       -11.68609
2.414                  -11.53794       -11.93308
2.416                  -11.97407       -12.04451
2.418                  -12.41436       -12.01268
2.42                   -12.85561       -11.83278
2.422                  -13.29419       -11.50397
2.424                  -13.72609       -11.03068
2.426                   -14.1471       -10.42369
2.428                  -14.55302       -9.701195
2.43                   -14.93997       -8.889285
2.432                  -15.30475       -8.021896
2.434                  -15.64513       -7.139922
2.436                  -15.96016       -6.289551
2.438                  -16.25038       -5.519992
2.44                    -16.5178       -4.880917
2.442                  -16.76587       -4.420062
2.444                  -16.99919       -4.181365
2.446                  -17.22317        -4.20392
2.448                  -17.44373       -4.521865
2.45                   -17.66694       -5.165104
2.452                  -17.89869       -6.160738
2.454                  -18.14443       -7.534981
2.456                  -18.40895       -9.315388
2.458                  -18.69612       -11.53323
2.46                   -19.00858       -14.22594
2.462                  -19.34733       -17.43927
2.464                  -19.71108       -21.22909
2.466                  -20.09533       -25.66169
2.468                  -20.49113       -30.81171
2.47                   -20.88353       -36.75496
2.472                     -21.25       -43.55337
2.474                  -21.55982       -51.22941
2.476                  -21.77576       -59.73135
2.478                  -21.85965       -68.90104
2.48                   -21.78182       -78.46652
2.482                  -21.53077       -88.07968
2.484                   -21.1175       -97.39262
2.486                  -20.57128       -106.1342
2.488                   -19.9301       -114.1483
2.49                   -19.23117       -121.3867
2.492                  -18.50539       -127.8772
2.494                  -17.77565       -133.6885
2.496                  -17.05749       -138.9044
2.498                  -16.36072       -143.6086
2.5                    -15.69102        -147.877
2.502                  -15.05125       -151.7753
2.504                  -14.44244       -155.3589
2.506                  -13.86448       -158.6737
2.508                  -13.31651       -161.7576
2.51                    -12.7973       -164.6418
2.512                   -12.3054        -167.352
2.514                  -11.83928       -169.9098
2.516                  -11.39736       -172.3328
2.518                  -10.97814       -174.6362
2.52                   -10.58016       -176.8325
2.522                  -10.20205       -178.9325
2.524                  -9.842515        179.0544
2.526                  -9.500359        177.1204
2.528                  -9.174475        175.2584
2.53                   -8.863843        173.4624
2.532                  -8.567522        171.7271
2.534                  -8.284652        170.0476
2.536                  -8.014446        168.4199
2.538                  -7.756179        166.8402
2.54                   -7.509191        165.3053
2.542                  -7.272876        163.8122
2.544                   -7.04668        162.3584
2.546                  -6.830089        160.9415
2.548                  -6.622635        159.5597
2.55                   -6.423879        158.2111
2.552                  -6.233413        156.8941
2.554                  -6.050855        155.6074
2.556                  -5.875847        154.3499
2.558                  -5.708046        153.1204
2.56                   -5.547125         151.918
2.562                  -5.392777         150.742
2.564                  -5.244697        149.5916
2.566                  -5.102594        148.4662
2.568                  -4.966185        147.3651
2.57                   -4.835196        146.2878
2.572                  -4.709357        145.2338
2.574                   -4.58841        144.2025
2.576                  -4.472102        143.1933
2.578                  -4.360189        142.2057
2.58                   -4.252436        141.2392
2.582                   -4.14862         140.293
2.584                  -4.048523        139.3667
2.586                  -3.951944        138.4595
2.588                  -3.858693        137.5709
2.59                   -3.768593           136.7
2.592                   -3.68148        135.8463
2.594                  -3.597202         135.009
2.596                  -3.515626        134.1875
2.598                  -3.436624        133.3812
2.6                     -3.36009        132.5892
2.602                  -3.285924        131.8111
2.604                  -3.214041        131.0463
2.606                  -3.144363        130.2942
2.608                  -3.076824        129.5544
2.61                    -3.01136        128.8263
2.612                  -2.947916        128.1097
2.614                  -2.886444        127.4042
2.616                  -2.826895        126.7096
2.618                  -2.769217        126.0255
2.62                   -2.713369        125.3519
2.622                  -2.659297        124.6885
2.624                  -2.606954        124.0353
2.626                  -2.556284        123.3921
2.628                  -2.507234         122.759
2.63                   -2.459743        122.1357
2.632                  -2.413747        121.5223
2.634                  -2.369183        120.9185
2.636                  -2.325985        120.3245
2.638                  -2.284082        119.7399
2.64                   -2.243407        119.1647
2.642                  -2.203893        118.5986
2.644                  -2.165472        118.0415
2.646                  -2.128082        117.4931
2.648                  -2.091663        116.9532
2.65                   -2.056158        116.4214
2.652                   -2.02152        115.8975