! TOUCHSTONE file generated by CST MICROWAVE STUDIO
! Date and time: Wed Jan 17 02:02:46 2024
! Project name: DiskLoadedMonopoleTenthLambda.cst
! Parameters = {AirCoaxRadius=1.5; DiskRadius=12.5; DiskThickness=0.1; DropWireDistance=12; DropWireRadius=0.5; GroundRadius=100; GroundThickness=5; lambdaTenth=14.4}
! Header version: 2018
! Port assignment regex: !\s*Touchstone port\s*([0-9]+)\s*=\s*(CST MWS port|CST DS port)\s*([0-9]+|Zmin|Zmax)\s*\(\"(.*)\"\)(\s*mode\s*([0-9]+))?.*
! Touchstone port assignment:
! Touchstone port 1 = CST MWS port 1 ("")
# GHz S DB R 50
0.8                  -0.04313119        4.584295
0.802                -0.04344293        4.294173
0.804                -0.04376406        4.004313
0.806                -0.04409456        3.714717
0.808                -0.04443608         3.42538
0.81                  -0.0447854        3.136303
0.812                -0.04514521        2.847484
0.814                -0.04551501        2.558921
0.816                -0.04589481        2.270614
0.818                -0.04628408        1.982559
0.82                 -0.04668285        1.694757
0.822                -0.04709222        1.407206
0.824                -0.04751058        1.119903
0.826                -0.04794066       0.8328488
0.828                -0.04837818       0.5460399
0.83                 -0.04882637       0.2594751
0.832                -0.04928474     -0.02684732
0.834                -0.04975222      -0.3129291
0.836                -0.05022938      -0.5987724
0.838                -0.05071516      -0.8843791
0.84                 -0.05121066       -1.169751
0.842                -0.05171536       -1.454891
0.844                -0.05222874       -1.739801
0.846                 -0.0527508       -2.024483
0.848                -0.05328211        -2.30894
0.85                 -0.05382051       -2.593175
0.852                 -0.0543687       -2.877189
0.854                -0.05492345       -3.160986
0.856                -0.05548691        -3.44457
0.858                -0.05605799       -3.727941
0.86                 -0.05663666       -4.011106
0.862                -0.05722293       -4.294064
0.864                -0.05781567       -4.576821
0.866                -0.05841645       -4.859382
0.868                -0.05902257       -5.141745
0.87                 -0.05963665       -5.423919
0.872                -0.06025701       -5.705906
0.874                -0.06088359       -5.987709
0.876                -0.06151577       -6.269333
0.878                -0.06215456       -6.550781
0.88                 -0.06279876       -6.832059
0.882                -0.06344992       -7.113169
0.884                -0.06410626       -7.394117
0.886                -0.06476769       -7.674906
0.888                -0.06543461       -7.955542
0.89                 -0.06610686       -8.236028
0.892                -0.06678485        -8.51637
0.894                -0.06746782       -8.796573
0.896                -0.06815622       -9.076639
0.898                -0.06884871       -9.356575
0.9                  -0.06954779       -9.636387
0.902                -0.07025114       -9.916076
0.904                -0.07095956       -10.19565
0.906                -0.07167338       -10.47512
0.908                -0.07239241       -10.75447
0.91                  -0.0731169       -11.03373
0.912                -0.07384595       -11.31289
0.914                -0.07458109       -11.59196
0.916                 -0.0753219       -11.87095
0.918                -0.07606757       -12.14986
0.92                 -0.07681893       -12.42869
0.922                -0.07757724       -12.70745
0.924                 -0.0783406       -12.98614
0.926                 -0.0791113       -13.26478
0.928                -0.07988751       -13.54336
0.93                 -0.08067041       -13.82189
0.932                -0.08146075       -14.10037
0.934                -0.08225766       -14.37882
0.936                -0.08306182       -14.65723
0.938                -0.08387323       -14.93561
0.94                 -0.08469381       -15.21396
0.942                -0.08552076       -15.49229
0.944                -0.08635764       -15.77058
0.946                -0.08720202       -16.04889
0.948                 -0.0880558       -16.32722
0.95                 -0.08891953        -16.6055
0.952                -0.08979176        -16.8838
0.954                -0.09067541       -17.16212
0.956                -0.09156838       -17.44042
0.958                -0.09247234       -17.71875
0.96                 -0.09338745        -17.9971
0.962                -0.09431342       -18.27548
0.964                -0.09525084       -18.55388
0.966                -0.09620153       -18.83231
0.968                -0.09716316       -19.11078
0.97                 -0.09813893       -19.38929
0.972                -0.09912723       -19.66784
0.974                 -0.1001296       -19.94644
0.976                 -0.1011459        -20.2251
0.978                 -0.1021762        -20.5038
0.98                  -0.1032211       -20.78257
0.982                  -0.104281       -21.06139
0.984                 -0.1053561       -21.34029
0.986                 -0.1064475       -21.61925
0.988                 -0.1075549       -21.89828
0.99                   -0.108679       -22.17739
0.992                   -0.10982       -22.45658
0.994                 -0.1109777       -22.73585
0.996                 -0.1121529       -23.01521
0.998                 -0.1133461       -23.29465
1                     -0.1145585       -23.57419
1.002                 -0.1157878       -23.85383
1.004                 -0.1170367       -24.13356
1.006                 -0.1183052       -24.41339
1.008                 -0.1195925       -24.69333
1.01                  -0.1208999       -24.97338
1.012                  -0.122227       -25.25354
1.014                 -0.1235751       -25.53381
1.016                 -0.1249436       -25.81421
1.018                 -0.1263337       -26.09472
1.02                  -0.1277439       -26.37535
1.022                  -0.129176       -26.65612
1.024                 -0.1306298       -26.93701
1.026                 -0.1321053       -27.21804
1.028                  -0.133604        -27.4992
1.03                  -0.1351243       -27.78051
1.032                 -0.1366677       -28.06196
1.034                 -0.1382347       -28.34356
1.036                 -0.1398244        -28.6253
1.038                 -0.1414376       -28.90721
1.04                  -0.1430734       -29.18926
1.042                 -0.1447345       -29.47149
1.044                 -0.1464185       -29.75387
1.046                 -0.1481276       -30.03643
1.048                 -0.1498611       -30.31916
1.05                  -0.1516195       -30.60207
1.052                  -0.153402       -30.88516
1.054                 -0.1552102       -31.16843
1.056                 -0.1570444        -31.4519
1.058                 -0.1589029       -31.73556
1.06                  -0.1607876       -32.01941
1.062                 -0.1626991       -32.30347
1.064                 -0.1646357       -32.58773
1.066                    -0.1666       -32.87221
1.068                 -0.1685905       -33.15691
1.07                  -0.1706077       -33.44182
1.072                 -0.1726518       -33.72696
1.074                 -0.1747244       -34.01234
1.076                 -0.1768237       -34.29794
1.078                 -0.1789504       -34.58378
1.08                  -0.1811064       -34.86988
1.082                 -0.1832916       -35.15623
1.084                 -0.1855036       -35.44283
1.086                 -0.1877456        -35.7297
1.088                 -0.1900181       -36.01683
1.09                  -0.1923194       -36.30424
1.092                 -0.1946512       -36.59193
1.094                 -0.1970128        -36.8799
1.096                 -0.1994048       -37.16816
1.098                 -0.2018299       -37.45673
1.1                   -0.2042847       -37.74558
1.102                 -0.2067726       -38.03476
1.104                 -0.2092928       -38.32425
1.106                 -0.2118456       -38.61406
1.108                 -0.2144328       -38.90419
1.11                   -0.217052       -39.19466
1.112                 -0.2197071       -39.48547
1.114                 -0.2223965       -39.77663
1.116                 -0.2251208       -40.06814
1.118                 -0.2278816          -40.36
1.12                  -0.2306775       -40.65224
1.122                 -0.2335125       -40.94485
1.124                  -0.236384       -41.23783
1.126                 -0.2392937        -41.5312
1.128                 -0.2422421       -41.82497
1.13                  -0.2452318       -42.11913
1.132                 -0.2482595       -42.41369
1.134                  -0.251329       -42.70868
1.136                 -0.2544388       -43.00407
1.138                 -0.2575929       -43.29989
1.14                  -0.2607892       -43.59615
1.142                 -0.2640295       -43.89285
1.144                 -0.2673143       -44.18998
1.146                 -0.2706445       -44.48758
1.148                 -0.2740205       -44.78563
1.15                  -0.2774444       -45.08415
1.152                 -0.2809166       -45.38315
1.154                  -0.284436       -45.68261
1.156                 -0.2880065       -45.98257
1.158                 -0.2916272       -46.28301
1.16                  -0.2952986       -46.58395
1.162                 -0.2990238       -46.88541
1.164                 -0.3028017       -47.18737
1.166                 -0.3066346       -47.48986
1.168                 -0.3105211       -47.79286
1.17                  -0.3144664       -48.09641
1.172                 -0.3184673       -48.40047
1.174                 -0.3225279        -48.7051
1.176                 -0.3266472       -49.01028
1.178                 -0.3308281       -49.31601
1.18                  -0.3350697       -49.62231
1.182                 -0.3393737       -49.92917
1.184                 -0.3437427       -50.23661
1.186                 -0.3481767       -50.54464
1.188                 -0.3526755       -50.85325
1.19                  -0.3572421       -51.16246
1.192                 -0.3618775       -51.47228
1.194                 -0.3665824        -51.7827
1.196                 -0.3713578       -52.09373
1.198                 -0.3762059       -52.40539
1.2                   -0.3811276       -52.71768
1.202                 -0.3861219       -53.03059
1.204                 -0.3911932       -53.34415
1.206                 -0.3963412       -53.65835
1.208                 -0.4015683       -53.97321
1.21                  -0.4068736       -54.28871
1.212                 -0.4122606       -54.60489
1.214                 -0.4177289       -54.92173
1.216                 -0.4232808       -55.23924
1.218                 -0.4289169       -55.55745
1.22                   -0.434641       -55.87634
1.222                 -0.4404499       -56.19591
1.224                 -0.4463503       -56.51621
1.226                 -0.4523393        -56.8372
1.228                 -0.4584204        -57.1589
1.23                  -0.4645942       -57.48133
1.232                 -0.4708621       -57.80447
1.234                 -0.4772267       -58.12835
1.236                 -0.4836887       -58.45296
1.238                 -0.4902488       -58.77831
1.24                  -0.4969097       -59.10443
1.242                 -0.5036721        -59.4313
1.244                 -0.5105385       -59.75892
1.246                 -0.5175093       -60.08733
1.248                 -0.5245863       -60.41649
1.25                  -0.5317715       -60.74644
1.252                 -0.5390681       -61.07718
1.254                 -0.5464739       -61.40872
1.256                 -0.5539938       -61.74106
1.258                  -0.561627        -62.0742
1.26                   -0.569377       -62.40815
1.262                 -0.5772456       -62.74293
1.264                  -0.585234       -63.07853
1.266                 -0.5933427       -63.41496
1.268                 -0.6015764       -63.75225
1.27                  -0.6099342       -64.09036
1.272                 -0.6184188       -64.42933
1.274                 -0.6270323       -64.76916
1.276                 -0.6357765       -65.10986
1.278                 -0.6446528       -65.45142
1.28                   -0.653665       -65.79388
1.282                 -0.6628124       -66.13722
1.284                 -0.6720989       -66.48144
1.286                 -0.6815261       -66.82658
1.288                 -0.6910965       -67.17261
1.29                  -0.7008098       -67.51956
1.292                 -0.7106711       -67.86742
1.294                 -0.7206814        -68.2162
1.296                 -0.7308433       -68.56594
1.298                 -0.7411588        -68.9166
1.3                   -0.7516291       -69.26821
1.302                 -0.7622584       -69.62077
1.304                  -0.773047       -69.97429
1.306                  -0.783999       -70.32877
1.308                 -0.7951169       -70.68424
1.31                  -0.8064015       -71.04067
1.312                 -0.8178571       -71.39808
1.314                 -0.8294851        -71.7565
1.316                 -0.8412879        -72.1159
1.318                 -0.8532696       -72.47632
1.32                  -0.8654316       -72.83775
1.322                 -0.8777767       -73.20019
1.324                 -0.8903071       -73.56364
1.326                 -0.9030276       -73.92813
1.328                 -0.9159388       -74.29365
1.33                  -0.9290446       -74.66021
1.332                 -0.9423483        -75.0278
1.334                 -0.9558513       -75.39646
1.336                 -0.9695587       -75.76616
1.338                 -0.9834721       -76.13692
1.34                  -0.9975947       -76.50875
1.342                  -1.011929       -76.88164
1.344                  -1.026479       -77.25562
1.346                  -1.041249       -77.63068
1.348                  -1.056239       -78.00681
1.35                   -1.071457       -78.38404
1.352                  -1.086902       -78.76235
1.354                  -1.102579       -79.14176
1.356                  -1.118491       -79.52226
1.358                  -1.134643       -79.90387
1.36                   -1.151035       -80.28657
1.362                  -1.167674       -80.67039
1.364                  -1.184561       -81.05533
1.366                  -1.201702       -81.44138
1.368                  -1.219098       -81.82854
1.37                   -1.236756       -82.21682
1.372                  -1.254676       -82.60622
1.374                  -1.272864       -82.99675
1.376                  -1.291323       -83.38839
1.378                  -1.310056       -83.78116
1.38                   -1.329068       -84.17505
1.382                  -1.348362       -84.57008
1.384                  -1.367942       -84.96623
1.386                  -1.387813        -85.3635
1.388                  -1.407977       -85.76191
1.39                   -1.428441       -86.16143
1.392                  -1.449205       -86.56208
1.394                  -1.470276       -86.96389
1.396                  -1.491657       -87.36678
1.398                   -1.51335       -87.77084
1.4                    -1.535363       -88.17596
1.402                  -1.557697       -88.58225
1.404                  -1.580358       -88.98962
1.406                  -1.603349       -89.39815
1.408                  -1.626674       -89.80778
1.41                   -1.650338       -90.21851
1.412                  -1.674345       -90.63032
1.414                    -1.6987       -91.04326
1.416                  -1.723405       -91.45731
1.418                  -1.748465       -91.87246
1.42                   -1.773885       -92.28866
1.422                   -1.79967       -92.70599
1.424                  -1.825822       -93.12442
1.426                  -1.852346       -93.54387
1.428                  -1.879248       -93.96443
1.43                    -1.90653       -94.38607
1.432                  -1.934198       -94.80875
1.434                  -1.962255       -95.23248
1.436                  -1.990706       -95.65729
1.438                  -2.019556       -96.08312
1.44                   -2.048808          -96.51
1.442                  -2.078467       -96.93793
1.444                  -2.108537       -97.36688
1.446                  -2.139023       -97.79685
1.448                   -2.16993       -98.22782
1.45                    -2.20126        -98.6598
1.452                   -2.23302       -99.09279
1.454                  -2.265213       -99.52674
1.456                  -2.297842       -99.96169
1.458                  -2.330915       -100.3976
1.46                   -2.364433       -100.8345
1.462                  -2.398402       -101.2724
1.464                  -2.432826       -101.7112
1.466                  -2.467711        -102.151
1.468                  -2.503058       -102.5917
1.47                   -2.538874       -103.0333
1.472                  -2.575163       -103.4759
1.474                  -2.611929       -103.9194
1.476                  -2.649178       -104.3637
1.478                  -2.686911        -104.809
1.48                   -2.725134       -105.2552
1.482                  -2.763855       -105.7022
1.484                  -2.803073       -106.1501
1.486                  -2.842796       -106.5989
1.488                  -2.883026       -107.0486
1.49                    -2.92377       -107.4991
1.492                   -2.96503       -107.9504
1.494                  -3.006814       -108.4025
1.496                  -3.049123       -108.8555
1.498                  -3.091963       -109.3093
1.5                    -3.135339        -109.764
1.502                  -3.179255       -110.2194
1.504                  -3.223715       -110.6756
1.506                  -3.268724       -111.1327
1.508                  -3.314288       -111.5905
1.51                   -3.360409       -112.0491
1.512                  -3.407093       -112.5084
1.514                  -3.454346       -112.9686
1.516                  -3.502173       -113.4295
1.518                  -3.550574       -113.8911
1.52                   -3.599559       -114.3536
1.522                  -3.649132       -114.8167
1.524                  -3.699295       -115.2806
1.526                  -3.750055       -115.7453
1.528                  -3.801416       -116.2107
1.53                   -3.853385       -116.6768
1.532                  -3.905964       -117.1437
1.534                  -3.959162       -117.6113
1.536                  -4.012981       -118.0796
1.538                  -4.067428       -118.5487
1.54                   -4.122505       -119.0185
1.542                  -4.178221        -119.489
1.544                  -4.234581       -119.9603
1.546                  -4.291588       -120.4323
1.548                  -4.349249        -120.905
1.55                   -4.407571       -121.3785
1.552                  -4.466558       -121.8527
1.554                  -4.526215       -122.3277
1.556                  -4.586549       -122.8035
1.558                  -4.647567         -123.28
1.56                   -4.709276       -123.7572
1.562                  -4.771677       -124.2353
1.564                   -4.83478       -124.7142
1.566                  -4.898591       -125.1938
1.568                  -4.963119       -125.6742
1.57                   -5.028366       -126.1555
1.572                   -5.09434       -126.6376
1.574                  -5.161051       -127.1206
1.576                  -5.228503       -127.6044
1.578                  -5.296703       -128.0891
1.58                   -5.365659       -128.5747
1.582                  -5.435381       -129.0612
1.584                  -5.505873       -129.5487
1.586                  -5.577146       -130.0371
1.588                  -5.649207       -130.5265
1.59                   -5.722063       -131.0169
1.592                  -5.795723       -131.5083
1.594                  -5.870197       -132.0008
1.596                  -5.945492       -132.4944
1.598                  -6.021617       -132.9891
1.6                    -6.098585        -133.485
1.602                  -6.176403       -133.9821
1.604                   -6.25508       -134.4804
1.606                  -6.334627       -134.9799
1.608                  -6.415055       -135.4808
1.61                   -6.496374        -135.983
1.612                  -6.578594       -136.4866
1.614                  -6.661729       -136.9917
1.616                  -6.745789       -137.4982
1.618                  -6.830787       -138.0063
1.62                   -6.916733        -138.516
1.622                  -7.003642       -139.0274
1.624                  -7.091525       -139.5405
1.626                  -7.180399       -140.0554
1.628                  -7.270274       -140.5721
1.63                   -7.361165       -141.0907
1.632                  -7.453088       -141.6114
1.634                  -7.546057       -142.1341
1.636                  -7.640089        -142.659
1.638                  -7.735198       -143.1861
1.64                   -7.831404       -143.7155
1.642                  -7.928721       -144.2474
1.644                  -8.027166       -144.7818
1.646                  -8.126761       -145.3188
1.648                   -8.22752       -145.8586
1.65                   -8.329467       -146.4012
1.652                   -8.43262       -146.9468
1.654                  -8.536998       -147.4954
1.656                  -8.642624       -148.0473
1.658                  -8.749519       -148.6025
1.66                   -8.857706       -149.1613
1.662                   -8.96721       -149.7236
1.664                  -9.078054       -150.2898
1.666                  -9.190261         -150.86
1.668                  -9.303859       -151.4343
1.67                   -9.418872       -152.0129
1.672                   -9.53533       -152.5961
1.674                   -9.65326       -153.1839
1.676                   -9.77269       -153.7768
1.678                  -9.893653       -154.3747
1.68                   -10.01618       -154.9781
1.682                  -10.14029       -155.5871
1.684                  -10.26604        -156.202
1.686                  -10.39344       -156.8231
1.688                  -10.52254       -157.4507
1.69                   -10.65337        -158.085
1.692                  -10.78597       -158.7265
1.694                  -10.92038       -159.3754
1.696                  -11.05663       -160.0321
1.698                  -11.19477       -160.6969
1.7                    -11.33483       -161.3704
1.702                  -11.47686       -162.0528
1.704                  -11.62091       -162.7448
1.706                  -11.76701       -163.4467
1.708                  -11.91521        -164.159
1.71                   -12.06557       -164.8823
1.712                  -12.21812       -165.6172
1.714                  -12.37291       -166.3642
1.716                     -12.53       -167.1241
1.718                  -12.68943       -167.8975
1.72                   -12.85126       -168.6851
1.722                  -13.01553       -169.4877
1.724                  -13.18229       -170.3062
1.726                   -13.3516       -171.1414
1.728                  -13.52351       -171.9943
1.73                   -13.69806       -172.8659
1.732                   -13.8753       -173.7572
1.734                  -14.05528       -174.6695
1.736                  -14.23805       -175.6039
1.738                  -14.42364       -176.5617
1.74                    -14.6121       -177.5444
1.742                  -14.80344       -178.5535
1.744                  -14.99772       -179.5906
1.746                  -15.19493        179.3427
1.748                   -15.3951        178.2444
1.75                   -15.59822        177.1126
1.752                  -15.80429        175.9452
1.754                  -16.01327          174.74
1.756                  -16.22512        173.4945
1.758                  -16.43979        172.2061
1.76                   -16.65717        170.8723
1.762                  -16.87715          169.49
1.764                  -17.09959        168.0562
1.766                  -17.32428        166.5677
1.768                    -17.551        165.0211
1.77                   -17.77946        163.4128
1.772                  -18.00931        161.7391
1.774                  -18.24014        159.9963
1.776                  -18.47147        158.1804
1.778                  -18.70271        156.2874
1.78                   -18.93321        154.3134
1.782                  -19.16217        152.2546
1.784                  -19.38873        150.1073
1.786                  -19.61186        147.8682
1.788                  -19.83044        145.5344
1.79                    -20.0432        143.1037
1.792                  -20.24877        140.5744
1.794                  -20.44562        137.9461
1.796                  -20.63216        135.2195
1.798                   -20.8067        132.3967
1.8                     -20.9675        129.4814
1.802                  -21.11283        126.4791
1.804                  -21.24101        123.3972
1.806                  -21.35043        120.2448
1.808                  -21.43969         117.033
1.81                   -21.50759        113.7746
1.812                   -21.5532        110.4836
1.814                  -21.57596        107.1751
1.816                  -21.57561        103.8648
1.818                   -21.5523        100.5684
1.82                   -21.50653        97.30112
1.822                  -21.43912        94.07744
1.824                  -21.35121        90.91047
1.826                  -21.24416        87.81169
1.828                  -21.11952        84.79087
1.83                   -20.97897        81.85584
1.832                  -20.82422        79.01254
1.834                  -20.65703        76.26518
1.836                  -20.47909        73.61626
1.838                  -20.29203        71.06685
1.84                    -20.0974        68.61674
1.842                   -19.8966        66.26468
1.844                  -19.69095        64.00859
1.846                   -19.4816         61.8457
1.848                   -19.2696         59.7728
1.85                   -19.05587        57.78629
1.852                  -18.84121        55.88242
1.854                  -18.62631        54.05722
1.856                  -18.41178         52.3068
1.858                  -18.19814        50.62721
1.86                    -17.9858        49.01464
1.862                  -17.77514        47.46534
1.864                  -17.56645        45.97573
1.866                     -17.36        44.54238
1.868                  -17.15596        43.16203
1.87                   -16.95452        41.83156
1.872                  -16.75579        40.54806
1.874                  -16.55987        39.30878
1.876                  -16.36683        38.11111
1.878                  -16.17672        36.95264
1.88                   -15.98957        35.83108
1.882                   -15.8054        34.74431
1.884                  -15.62421        33.69031
1.886                    -15.446        32.66725
1.888                  -15.27073        31.67337
1.89                   -15.09839        30.70704
1.892                  -14.92895        29.76675
1.894                  -14.76237        28.85107
1.896                   -14.5986        27.95868
1.898                  -14.43761        27.08834
1.9                    -14.27935        26.23888
1.902                  -14.12376        25.40923
1.904                  -13.97081        24.59837
1.906                  -13.82044        23.80534
1.908                  -13.67259        23.02927
1.91                   -13.52722        22.26931
1.912                  -13.38427        21.52468
1.914                   -13.2437        20.79466
1.916                  -13.10545        20.07855
1.918                  -12.96947        19.37571
1.92                   -12.83572        18.68552
1.922                  -12.70414        18.00743
1.924                  -12.57469        17.34088
1.926                  -12.44731        16.68538
1.928                  -12.32197        16.04045
1.93                   -12.19862        15.40564
1.932                  -12.07721        14.78052
1.934                  -11.95771         14.1647
1.936                  -11.84006         13.5578
1.938                  -11.72423        12.95946
1.94                   -11.61018        12.36934
1.942                  -11.49786        11.78713
1.944                  -11.38725        11.21252
1.946                   -11.2783        10.64523
1.948                  -11.17098        10.08498
1.95                   -11.06525        9.531521
1.952                  -10.96108        8.984607
1.954                  -10.85843        8.444005
1.956                  -10.75728        7.909494
1.958                  -10.65759        7.380868
1.96                   -10.55933        6.857926
1.962                  -10.46247        6.340481
1.964                  -10.36699        5.828351
1.966                  -10.27285        5.321365
1.968                  -10.18003         4.81936
1.97                    -10.0885         4.32218
1.972                  -9.998228        3.829677
1.974                    -9.9092        3.341709
1.976                  -9.821387        2.858141
1.978                  -9.734765        2.378843
1.98                   -9.649311        1.903693
1.982                  -9.565004        1.432572
1.984                  -9.481818       0.9653673
1.986                  -9.399735       0.5019711
1.988                  -9.318733      0.04227981
1.99                   -9.238791      -0.4138054
1.992                  -9.159891      -0.8663794
1.994                  -9.082012       -1.315533
1.996                  -9.005138       -1.761354
1.998                  -8.929247       -2.203925