! TOUCHSTONE file generated by CST MICROWAVE STUDIO
! Date and time: Wed Jan 17 02:03:32 2024
! Project name: DiskLoadedMonopoleTwentiethLambda.cst
! Parameters = {AirCoaxRadius=1.5; DiskRadius=20; DiskThickness=4.7; DropWireDistance=19.4; DropWireRadius=0.6; GroundRadius=100; GroundThickness=5.6; lambdaTwenthieth=8.3}
! Header version: 2018
! Port assignment regex: !\s*Touchstone port\s*([0-9]+)\s*=\s*(CST MWS port|CST DS port)\s*([0-9]+|Zmin|Zmax)\s*\(\"(.*)\"\)(\s*mode\s*([0-9]+))?.*
! Touchstone port assignment:
! Touchstone port 1 = CST MWS port 1 ("")
# GHz S DB R 50
0.8                  -0.03592104        53.13623
0.802                -0.03590256        52.84241
0.804                -0.03586631        52.54852
0.806                -0.03581165        52.25457
0.808                -0.03574095        51.96053
0.81                 -0.03565416        51.66639
0.812                -0.03555291        51.37216
0.814                -0.03543909        51.07783
0.816                -0.03531458        50.78339
0.818                -0.03517789        50.48883
0.82                 -0.03503391        50.19416
0.822                -0.03487889        49.89936
0.824                -0.03472031        49.60443
0.826                -0.03455531        49.30937
0.828                -0.03438701        49.01417
0.83                 -0.03421669        48.71884
0.832                -0.03404448        48.42336
0.834                -0.03387411        48.12775
0.836                -0.03370393        47.83198
0.838                -0.03353732        47.53608
0.84                 -0.03337631        47.24002
0.842                 -0.0332191        46.94382
0.844                 -0.0330703        46.64747
0.846                -0.03293001        46.35098
0.848                -0.03279837        46.05435
0.85                 -0.03267774        45.75756
0.852                -0.03256979        45.46064
0.854                -0.03247468        45.16359
0.856                -0.03239406        44.86639
0.858                -0.03232885        44.56905
0.86                 -0.03228085         44.2716
0.862                -0.03224868          43.974
0.864                -0.03223643        43.67629
0.866                -0.03224324        43.37846
0.868                -0.03227081         43.0805
0.87                  -0.0323184        42.78243
0.872                 -0.0323883        42.48426
0.874                -0.03248111        42.18598
0.876                -0.03259654         41.8876
0.878                -0.03273655        41.58913
0.88                 -0.03290039        41.29057
0.882                -0.03309012        40.99193
0.884                 -0.0333043         40.6932
0.886                -0.03354423        40.39441
0.888                -0.03381157        40.09555
0.89                 -0.03410428        39.79662
0.892                -0.03442363        39.49763
0.894                -0.03477039        39.19859
0.896                -0.03514258        38.89951
0.898                 -0.0355418        38.60037
0.9                  -0.03596856        38.30121
0.902                -0.03642309          38.002
0.904                -0.03690331        37.70278
0.906                -0.03741003        37.40352
0.908                -0.03794498        37.10426
0.91                 -0.03850447        36.80497
0.912                 -0.0390902        36.50567
0.914                -0.03970077        36.20636
0.916                -0.04033682        35.90705
0.918                  -0.040999        35.60775
0.92                 -0.04168448        35.30845
0.922                -0.04239442        35.00916
0.924                -0.04312776        34.70987
0.926                -0.04388319        34.41059
0.928                -0.04466086        34.11133
0.93                 -0.04546054        33.81209
0.932                -0.04628123        33.51286
0.934                -0.04712271        33.21366
0.936                -0.04798246        32.91446
0.938                -0.04886112         32.6153
0.94                 -0.04975897        32.31615
0.942                -0.05067425        32.01703
0.944                -0.05160578        31.71791
0.946                -0.05255374        31.41882
0.948                -0.05351644        31.11976
0.95                 -0.05449407         30.8207
0.952                -0.05548546        30.52166
0.954                -0.05648852        30.22263
0.956                 -0.0575055        29.92362
0.958                -0.05853242         29.6246
0.96                 -0.05957143        29.32561
0.962                -0.06061981        29.02661
0.964                -0.06167799        28.72758
0.966                 -0.0627454         28.4286
0.968                -0.06382021        28.12955
0.97                 -0.06490262        27.83051
0.972                -0.06599181        27.53145
0.974                -0.06708749        27.23236
0.976                -0.06818912        26.93322
0.978                -0.06929563        26.63409
0.98                 -0.07040634        26.33487
0.982                -0.07152183        26.03561
0.984                -0.07264128        25.73629
0.986                -0.07376343        25.43693
0.988                -0.07488961        25.13748
0.99                 -0.07601797        24.83799
0.992                 -0.0771483        24.53836
0.994                -0.07828259        24.23866
0.996                -0.07941842        23.93886
0.998                -0.08055538        23.63894
1                    -0.08169542        23.33892
1.002                -0.08283581        23.03877
1.004                -0.08397888        22.73848
1.006                -0.08512385        22.43805
1.008                -0.08627072        22.13748
1.01                 -0.08741936        21.83674
1.012                -0.08857103        21.53584
1.014                -0.08972457        21.23477
1.016                -0.09088181        20.93351
1.018                -0.09204121        20.63206
1.02                 -0.09320489        20.33041
1.022                -0.09437235        20.02855
1.024                -0.09554459        19.72647
1.026                -0.09672089        19.42417
1.028                -0.09790298        19.12163
1.03                 -0.09909129        18.81885
1.032                 -0.1002867        18.51582
1.034                 -0.1014894        18.21253
1.036                 -0.1027002        17.90897
1.038                 -0.1039198        17.60514
1.04                  -0.1051499        17.30103
1.042                 -0.1063894        16.99662
1.044                 -0.1076411        16.69193
1.046                 -0.1089052        16.38692
1.048                 -0.1101823        16.08161
1.05                  -0.1114732        15.77597
1.052                 -0.1127799        15.47001
1.054                 -0.1141034        15.16373
1.056                 -0.1154429         14.8571
1.058                  -0.116801        14.55013
1.06                  -0.1181796        14.24281
1.062                 -0.1195774        13.93513
1.064                 -0.1209978         13.6271
1.066                 -0.1224412         13.3187
1.068                 -0.1239078        13.00992
1.07                     -0.1254        12.70078
1.072                 -0.1269188        12.39125
1.074                 -0.1284653        12.08133
1.076                 -0.1300399        11.77103
1.078                 -0.1316446        11.46034
1.08                  -0.1332799        11.14924
1.082                 -0.1349486        10.83775
1.084                 -0.1366505        10.52585
1.086                 -0.1383865        10.21355
1.088                 -0.1401595        9.900837
1.09                  -0.1419685         9.58771
1.092                 -0.1438173        9.274171
1.094                  -0.145705        8.960212
1.096                 -0.1476327        8.645834
1.098                 -0.1496037        8.331033
1.1                   -0.1516164        8.015809
1.102                  -0.153673        7.700158
1.104                 -0.1557759         7.38408
1.106                 -0.1579255        7.067575
1.108                 -0.1601214        6.750637
1.11                   -0.162367        6.433269
1.112                 -0.1646617        6.115467
1.114                 -0.1670068        5.797232
1.116                 -0.1694045        5.478561
1.118                 -0.1718548        5.159454
1.12                   -0.174358         4.83991
1.122                 -0.1769162        4.519928
1.124                 -0.1795314        4.199507
1.126                 -0.1822002        3.878645
1.128                  -0.184929        3.557344
1.13                   -0.187715          3.2356
1.132                 -0.1905613        2.913415
1.134                 -0.1934669        2.590786
1.136                 -0.1964337        2.267713
1.138                 -0.1994614        1.944194
1.14                  -0.2025529        1.620229
1.142                 -0.2057073        1.295816
1.144                  -0.208925       0.9709542
1.146                  -0.212209       0.6456427
1.148                  -0.215558       0.3198795
1.15                  -0.2189732    -0.006336797
1.152                 -0.2224557      -0.3330078
1.154                 -0.2260063      -0.6601355
1.156                 -0.2296237      -0.9877214
1.158                 -0.2333117       -1.315768
1.16                  -0.2370689       -1.644278
1.162                 -0.2408968       -1.973253
1.164                 -0.2447953       -2.302695
1.166                 -0.2487655       -2.632608
1.168                 -0.2528088       -2.962995
1.17                  -0.2569252       -3.293859
1.172                 -0.2611145       -3.625203
1.174                 -0.2653796        -3.95703
1.176                  -0.269718       -4.289345
1.178                 -0.2741331        -4.62215
1.18                  -0.2786243       -4.955452
1.182                 -0.2831937       -5.289254
1.184                 -0.2878403        -5.62356
1.186                 -0.2925657       -5.958376
1.188                 -0.2973705       -6.293705
1.19                  -0.3022552       -6.629554
1.192                 -0.3072215       -6.965929
1.194                 -0.3122694       -7.302834
1.196                 -0.3174007       -7.640278
1.198                 -0.3226153       -7.978262
1.2                   -0.3279133       -8.316796
1.202                 -0.3332976       -8.655885
1.204                 -0.3387682       -8.995538
1.206                 -0.3443258       -9.335759
1.208                 -0.3499737       -9.676558
1.21                  -0.3557098       -10.01794
1.212                 -0.3615371       -10.35991
1.214                 -0.3674566       -10.70248
1.216                 -0.3734686       -11.04566
1.218                  -0.379576       -11.38945
1.22                  -0.3857789       -11.73387
1.222                 -0.3920791       -12.07891
1.224                 -0.3984784       -12.42459
1.226                 -0.4049777       -12.77092
1.228                 -0.4115793       -13.11791
1.23                  -0.4182846       -13.46556
1.232                 -0.4250944       -13.81388
1.234                 -0.4320106       -14.16288
1.236                 -0.4390368       -14.51257
1.238                 -0.4461734       -14.86296
1.24                  -0.4534225       -15.21406
1.242                 -0.4607859       -15.56587
1.244                 -0.4682665       -15.91841
1.246                 -0.4758652       -16.27168
1.248                 -0.4835856       -16.62569
1.25                  -0.4914297       -16.98045
1.252                 -0.4993982       -17.33597
1.254                 -0.5074956       -17.69226
1.256                 -0.5157243       -18.04932
1.258                 -0.5240844       -18.40716
1.26                  -0.5325818       -18.76579
1.262                 -0.5412173       -19.12522
1.264                 -0.5499944       -19.48546
1.266                 -0.5589154       -19.84651
1.268                 -0.5679826       -20.20838
1.27                  -0.5772011       -20.57107
1.272                 -0.5865721        -20.9346
1.274                 -0.5961002       -21.29897
1.276                 -0.6057869       -21.66419
1.278                 -0.6156369       -22.03026
1.28                  -0.6256515       -22.39718
1.282                 -0.6358376       -22.76496
1.284                 -0.6461956       -23.13361
1.286                 -0.6567299       -23.50313
1.288                 -0.6674452       -23.87353
1.29                  -0.6783432        -24.2448
1.292                 -0.6894285       -24.61696
1.294                 -0.7007057          -24.99
1.296                 -0.7121775       -25.36392
1.298                 -0.7238489       -25.73874
1.3                   -0.7357219       -26.11444
1.302                 -0.7478016       -26.49103
1.304                 -0.7600921       -26.86852
1.306                 -0.7725983       -27.24689
1.308                 -0.7853233       -27.62616
1.31                  -0.7982715       -28.00631
1.312                 -0.8114477       -28.38736
1.314                  -0.824854       -28.76928
1.316                 -0.8384976       -29.15209
1.318                 -0.8523798       -29.53578
1.32                  -0.8665086       -29.92034
1.322                 -0.8808848       -30.30577
1.324                 -0.8955161       -30.69207
1.326                  -0.910404       -31.07924
1.328                 -0.9255547       -31.46725
1.33                  -0.9409717       -31.85611
1.332                 -0.9566614       -32.24581
1.334                 -0.9726265       -32.63634
1.336                 -0.9888725        -33.0277
1.338                  -1.005403       -33.41987
1.34                   -1.022223       -33.81284
1.342                  -1.039338       -34.20661
1.344                  -1.056751       -34.60116
1.346                  -1.074469       -34.99648
1.348                  -1.092493       -35.39256
1.35                    -1.11083       -35.78939
1.352                  -1.129486       -36.18694
1.354                  -1.148461       -36.58521
1.356                  -1.167767       -36.98421
1.358                  -1.187401       -37.38387
1.36                   -1.207372       -37.78421
1.362                  -1.227681       -38.18521
1.364                  -1.248338       -38.58684
1.366                  -1.269342       -38.98909
1.368                  -1.290702       -39.39195
1.37                   -1.312419       -39.79539
1.372                  -1.334499       -40.19939
1.374                  -1.356946       -40.60394
1.376                  -1.379765         -41.009
1.378                  -1.402961       -41.41458
1.38                   -1.426537       -41.82063
1.382                  -1.450498       -42.22712
1.384                  -1.474848       -42.63406
1.386                  -1.499593       -43.04141
1.388                  -1.524734       -43.44913
1.39                   -1.550278       -43.85723
1.392                  -1.576229       -44.26566
1.394                  -1.602588        -44.6744
1.396                  -1.629363       -45.08341
1.398                  -1.656555       -45.49268
1.4                    -1.684171       -45.90219
1.402                  -1.712213       -46.31189
1.404                  -1.740685       -46.72177
1.406                  -1.769594        -47.1318
1.408                  -1.798938       -47.54193
1.41                   -1.828725       -47.95215
1.412                  -1.858957       -48.36243
1.414                  -1.889639       -48.77273
1.416                  -1.920773       -49.18301
1.418                  -1.952363       -49.59326
1.42                   -1.984415       -50.00344
1.422                  -2.016928       -50.41351
1.424                   -2.04991       -50.82346
1.426                  -2.083361       -51.23322
1.428                  -2.117286       -51.64278
1.43                   -2.151688       -52.05211
1.432                   -2.18657       -52.46116
1.434                  -2.221934        -52.8699
1.436                  -2.257785        -53.2783
1.438                  -2.294124        -53.6863
1.44                   -2.330957       -54.09392
1.442                  -2.368284        -54.5011
1.444                   -2.40611       -54.90776
1.446                  -2.444435       -55.31392
1.448                  -2.483265       -55.71952
1.45                     -2.5226       -56.12447
1.452                  -2.562445       -56.52884
1.454                    -2.6028       -56.93249
1.456                  -2.643669       -57.33551
1.458                  -2.685054       -57.73769
1.46                   -2.726958        -58.1391
1.462                  -2.769383        -58.5397
1.464                  -2.812332       -58.93944
1.466                  -2.855805       -59.33825
1.468                  -2.899805       -59.73613
1.47                   -2.944336       -60.13298
1.472                  -2.989399       -60.52883
1.474                  -3.034994       -60.92361
1.476                  -3.081126       -61.31726
1.478                  -3.127795       -61.70976
1.48                   -3.175002       -62.10108
1.482                  -3.222751       -62.49119
1.484                  -3.271043       -62.87997
1.486                   -3.31988       -63.26746
1.488                  -3.369261       -63.65361
1.49                   -3.419192       -64.03834
1.492                   -3.46967       -64.42162
1.494                    -3.5207        -64.8034
1.496                  -3.572282       -65.18365
1.498                  -3.624417       -65.56236
1.5                    -3.677107       -65.93944
1.502                  -3.730352       -66.31484
1.504                  -3.784155       -66.68854
1.506                  -3.838516       -67.06051
1.508                  -3.893437       -67.43067
1.51                    -3.94892         -67.799
1.512                  -4.004962       -68.16548
1.514                  -4.061568       -68.53006
1.516                  -4.118739       -68.89261
1.518                  -4.176474        -69.2532
1.52                   -4.234775       -69.61169
1.522                  -4.293643        -69.9681
1.524                  -4.353079       -70.32238
1.526                  -4.413082       -70.67445
1.528                  -4.473656       -71.02432
1.53                     -4.5348       -71.37189
1.532                  -4.596515       -71.71713
1.534                  -4.658801       -72.06002
1.536                  -4.721661       -72.40048
1.538                  -4.785094       -72.73848
1.54                   -4.849101       -73.07399
1.542                  -4.913683       -73.40693
1.544                  -4.978841       -73.73727
1.546                  -5.044575       -74.06498
1.548                  -5.110886          -74.39
1.55                   -5.177777       -74.71227
1.552                  -5.245245       -75.03178
1.554                  -5.313294       -75.34843
1.556                  -5.381922       -75.66221
1.558                  -5.451132       -75.97305
1.56                   -5.520926       -76.28094
1.562                    -5.5913       -76.58578
1.564                  -5.662258       -76.88757
1.566                  -5.733804       -77.18623
1.568                  -5.805933       -77.48172
1.57                   -5.878649       -77.77399
1.572                  -5.951953         -78.063
1.574                  -6.025846       -78.34867
1.576                  -6.100329       -78.63097
1.578                  -6.175402       -78.90986
1.58                    -6.25107       -79.18528
1.582                  -6.327329       -79.45716
1.584                  -6.404185       -79.72546
1.586                  -6.481636       -79.99012
1.588                  -6.559686        -80.2511
1.59                   -6.638335       -80.50834
1.592                  -6.717586       -80.76178
1.594                   -6.79744       -81.01136
1.596                  -6.877897       -81.25701
1.598                  -6.958962        -81.4987
1.6                    -7.040635       -81.73638
1.602                   -7.12292       -81.96994
1.604                  -7.205817       -82.19935
1.606                  -7.289329       -82.42454
1.608                   -7.37346       -82.64545
1.61                    -7.45821       -82.86202
1.612                  -7.543584       -83.07418
1.614                  -7.629584       -83.28183
1.616                  -7.716212       -83.48495
1.618                  -7.803471       -83.68344
1.62                   -7.891366       -83.87722
1.622                  -7.979899       -84.06625
1.624                  -8.069073       -84.25041
1.626                  -8.158892       -84.42965
1.628                   -8.24936       -84.60386
1.63                    -8.34048       -84.77298
1.632                  -8.432258       -84.93693
1.634                  -8.524695       -85.09558
1.636                  -8.617798       -85.24888
1.638                  -8.711569        -85.3967
1.64                   -8.806014       -85.53898
1.642                  -8.901137       -85.67558
1.644                  -8.996943       -85.80642
1.646                  -9.093437       -85.93137
1.648                  -9.190623       -86.05034
1.65                   -9.288506        -86.1632
1.652                  -9.387094       -86.26982
1.654                  -9.486387        -86.3701
1.656                  -9.586394       -86.46388
1.658                   -9.68712       -86.55104
1.66                    -9.78857       -86.63144
1.662                  -9.890748       -86.70492
1.664                  -9.993662       -86.77135
1.666                  -10.09732       -86.83055
1.668                  -10.20171       -86.88237
1.67                   -10.30686       -86.92662
1.672                  -10.41277       -86.96313
1.674                  -10.51943       -86.99174
1.676                  -10.62686       -87.01221
1.678                  -10.73506       -87.02437
1.68                   -10.84404         -87.028
1.682                  -10.95379       -87.02289
1.684                  -11.06432        -87.0088
1.686                  -11.17565       -86.98549
1.688                  -11.28776       -86.95273
1.69                   -11.40066       -86.91024
1.692                  -11.51435       -86.85777
1.694                  -11.62884       -86.79505
1.696                  -11.74412       -86.72176
1.698                  -11.86019       -86.63761
1.7                    -11.97706       -86.54229
1.702                  -12.09471       -86.43544
1.704                  -12.21315       -86.31676
1.706                  -12.33237       -86.18588
1.708                  -12.45235       -86.04242
1.71                   -12.57311         -85.886
1.712                  -12.69462       -85.71623
1.714                  -12.81687       -85.53269
1.716                  -12.93984       -85.33493
1.718                  -13.06353       -85.12254
1.72                    -13.1879       -84.89502
1.722                  -13.31294       -84.65191
1.724                  -13.43862       -84.39273
1.726                  -13.56492       -84.11694
1.728                  -13.69179       -83.82401
1.73                    -13.8192       -83.51343
1.732                  -13.94711       -83.18462
1.734                  -14.07548         -82.837
1.736                  -14.20424       -82.46999
1.738                  -14.33335       -82.08298
1.74                   -14.46274       -81.67537
1.742                  -14.59234       -81.24654
1.744                  -14.72206       -80.79583
1.746                  -14.85184       -80.32263
1.748                  -14.98157       -79.82629
1.75                   -15.11116       -79.30613
1.752                  -15.24049       -78.76153
1.754                  -15.36945       -78.19188
1.756                   -15.4979       -77.59651
1.758                  -15.62571       -76.97484
1.76                   -15.75273       -76.32625
1.762                  -15.87879        -75.6502
1.764                  -16.00372       -74.94615
1.766                  -16.12734       -74.21359
1.768                  -16.24945       -73.45212
1.77                   -16.36985       -72.66134
1.772                   -16.4883       -71.84092
1.774                  -16.60459       -70.99066
1.776                  -16.71846       -70.11036
1.778                  -16.82967       -69.20002
1.78                   -16.93794       -68.25968
1.782                  -17.04302       -67.28951
1.784                  -17.14462       -66.28983
1.786                  -17.24245       -65.26112
1.788                  -17.33622       -64.20394
1.79                   -17.42566       -63.11908
1.792                  -17.51045       -62.00746
1.794                  -17.59032       -60.87019
1.796                  -17.66499       -59.70855
1.798                  -17.73419       -58.52399
1.8                    -17.79765       -57.31813
1.802                  -17.85513       -56.09278
1.804                   -17.9064        -54.8499
1.806                  -17.95126       -53.59159
1.808                  -17.98954       -52.32012
1.81                   -18.02107       -51.03786
1.812                  -18.04573       -49.74729
1.814                  -18.06344       -48.45095
1.816                  -18.07413       -47.15148
1.818                  -18.07778       -45.85152
1.82                    -18.0744       -44.55373
1.822                  -18.06403       -43.26074
1.824                  -18.04675       -41.97515
1.826                  -18.02267       -40.69948
1.828                  -17.99193       -39.43618
1.83                    -17.9547       -38.18754
1.832                  -17.91118       -36.95577
1.834                  -17.86158       -35.74294
1.836                  -17.80614        -34.5509
1.838                  -17.74513       -33.38139
1.84                    -17.6788       -32.23596
1.842                  -17.60744       -31.11597
1.844                  -17.53135       -30.02262
1.846                  -17.45081       -28.95693
1.848                  -17.36611       -27.91976
1.85                   -17.27756       -26.91176
1.852                  -17.18545       -25.93349
1.854                  -17.09007       -24.98532
1.856                  -16.99168       -24.06747
1.858                  -16.89058       -23.18006
1.86                   -16.78702        -22.3231
1.862                  -16.68125       -21.49646
1.864                  -16.57353       -20.69994
1.866                  -16.46408       -19.93325
1.868                  -16.35311       -19.19601
1.87                   -16.24085       -18.48781
1.872                  -16.12748       -17.80814
1.874                  -16.01319       -17.15649
1.876                  -15.89814       -16.53227
1.878                  -15.78251       -15.93488
1.88                   -15.66644        -15.3637
1.882                  -15.55006       -14.81807
1.884                  -15.43351       -14.29733
1.886                   -15.3169       -13.80081
1.888                  -15.20035       -13.32784
1.89                   -15.08395       -12.87774
1.892                   -14.9678       -12.44982
1.894                  -14.85198       -12.04342
1.896                  -14.73657       -11.65788
1.898                  -14.62163       -11.29255
1.9                    -14.50723       -10.94677
1.902                  -14.39342       -10.61991
1.904                  -14.28026       -10.31137
1.906                   -14.1678       -10.02053
1.908                  -14.05607       -9.746805
1.91                   -13.94511       -9.489618
1.912                  -13.83496       -9.248418
1.914                  -13.72564       -9.022659
1.916                  -13.61718       -8.811817
1.918                   -13.5096        -8.61538
1.92                   -13.40292       -8.432856
1.922                  -13.29716       -8.263763
1.924                  -13.19233       -8.107647
1.926                  -13.08844       -7.964055
1.928                  -12.98549       -7.832559
1.93                   -12.88351       -7.712741
1.932                  -12.78249         -7.6042
1.934                  -12.68244       -7.506547
1.936                  -12.58336       -7.419408
1.938                  -12.48525       -7.342424
1.94                   -12.38811       -7.275246
1.942                  -12.29195        -7.21754
1.944                  -12.19675       -7.168982
1.946                  -12.10251       -7.129262
1.948                  -12.00924       -7.098078
1.95                   -11.91692       -7.075145
1.952                  -11.82555        -7.06018
1.954                  -11.73513       -7.052917
1.956                  -11.64565       -7.053101
1.958                   -11.5571        -7.06048
1.96                   -11.46947       -7.074815
1.962                  -11.38276       -7.095874
1.964                  -11.29696       -7.123437
1.966                  -11.21206       -7.157291
1.968                  -11.12805       -7.197226
1.97                   -11.04493       -7.243046
1.972                  -10.96267       -7.294559
1.974                  -10.88129        -7.35158
1.976                  -10.80076       -7.413932
1.978                  -10.72107       -7.481441
1.98                   -10.64223       -7.553947
1.982                   -10.5642       -7.631286
1.984                    -10.487       -7.713307
1.986                  -10.41061       -7.799863
1.988                  -10.33501       -7.890808
1.99                   -10.26021       -7.986007
1.992                  -10.18618       -8.085327
1.994                  -10.11293       -8.188638
1.996                  -10.04043       -8.295821
1.998                  -9.968689       -8.406752