! TOUCHSTONE file generated by CST MICROWAVE STUDIO
! Date and time: Tue Jan 16 18:05:10 2024
! Project name: DualBandPIFA.cst
! Parameters = {AirCoaxRadius=1.5; FeedXoffset=28; FeedYoffset=6.35; PatchWidth=34; ShortingPinXoffset=5.2; ShortingPinYoffset=6.35; Slot1Length=24.4; Slot1Width=1; Slot1Xoffset=42; Slot2Length=14.6; Slot2Width=3; f1=0.9075; f2=1.795}
! Header version: 2018
! Port assignment regex: !\s*Touchstone port\s*([0-9]+)\s*=\s*(CST MWS port|CST DS port)\s*([0-9]+|Zmin|Zmax)\s*\(\"(.*)\"\)(\s*mode\s*([0-9]+))?.*
! Touchstone port assignment:
! Touchstone port 1 = CST MWS port 1 ("")
# GHz S DB R 50
0.5                  -0.06556412        61.55964
0.502                -0.06783322        61.11328
0.504                -0.07005376        60.66683
0.506                -0.07222163        60.22022
0.508                 -0.0743318        59.77336
0.51                 -0.07638078        59.32615
0.512                -0.07836921        58.87854
0.514                -0.08029504         58.4304
0.516                -0.08215689        57.98164
0.518                -0.08395767         57.5322
0.52                 -0.08569884        57.08195
0.522                -0.08738322         56.6308
0.524                -0.08901587        56.17868
0.526                -0.09059994        55.72548
0.528                -0.09214495        55.27112
0.53                  -0.0936541         54.8155
0.532                -0.09513772        54.35856
0.534                 -0.0966041        53.90019
0.536                -0.09806172        53.44033
0.538                 -0.0995204        52.97889
0.54                  -0.1009939        52.51584
0.542                 -0.1024889        52.05107
0.544                 -0.1040208        51.58455
0.546                 -0.1056006         51.1162
0.548                 -0.1072406        50.64599
0.55                  -0.1089532        50.17388
0.552                 -0.1107522        49.69982
0.554                 -0.1126519        49.22378
0.556                  -0.114664        48.74575
0.558                 -0.1168018        48.26568
0.56                  -0.1190777        47.78357
0.562                 -0.1215059         47.2994
0.564                 -0.1240978        46.81317
0.566                  -0.126866        46.32487
0.568                 -0.1298209         45.8345
0.57                  -0.1329763        45.34208
0.572                 -0.1363417         44.8476
0.574                 -0.1399283        44.35108
0.576                 -0.1437435        43.85253
0.578                 -0.1477974        43.35195
0.58                  -0.1521012        42.84939
0.582                 -0.1566589        42.34485
0.584                 -0.1614789        41.83834
0.586                 -0.1665667        41.32988
0.588                  -0.171931         40.8195
0.59                  -0.1775743        40.30721
0.592                 -0.1835009        39.79301
0.594                 -0.1897161        39.27693
0.596                 -0.1962212        38.75897
0.598                 -0.2030209        38.23913
0.6                   -0.2101163        37.71743
0.602                 -0.2175085        37.19385
0.604                 -0.2252004        36.66839
0.606                 -0.2331922        36.14105
0.608                 -0.2414843        35.61178
0.61                  -0.2500777        35.08058
0.612                  -0.258973        34.54742
0.614                 -0.2681703        34.01225
0.616                 -0.2776712        33.47505
0.618                 -0.2874747        32.93575
0.62                   -0.297584        32.39431
0.622                 -0.3079991        31.85066
0.624                 -0.3187219        31.30472
0.626                 -0.3297554        30.75644
0.628                 -0.3411035        30.20571
0.63                  -0.3527698        29.65246
0.632                 -0.3647579        29.09659
0.634                 -0.3770758          28.538
0.636                  -0.389729        27.97658
0.638                 -0.4027257        27.41221
0.64                  -0.4160762         26.8448
0.642                 -0.4297899         26.2742
0.644                 -0.4438799        25.70031
0.646                 -0.4583604        25.12298
0.648                  -0.473244         24.5421
0.65                  -0.4885498        23.95753
0.652                 -0.5042964        23.36913
0.654                 -0.5205016        22.77678
0.656                 -0.5371896        22.18034
0.658                  -0.554383        21.57968
0.66                  -0.5721062        20.97464
0.662                 -0.5903877        20.36515
0.664                 -0.6092571        19.75101
0.666                 -0.6287434        19.13215
0.668                   -0.64888        18.50845
0.67                  -0.6697021        17.87977
0.672                 -0.6912433        17.24603
0.674                 -0.7135435         16.6071
0.676                 -0.7366411        15.96291
0.678                 -0.7605788        15.31335
0.68                  -0.7853964        14.65839
0.682                 -0.8111401        13.99792
0.684                 -0.8378553        13.33189
0.686                 -0.8655888        12.66025
0.688                  -0.894388        11.98296
0.69                  -0.9243043        11.29999
0.692                 -0.9553869        10.61133
0.694                 -0.9876878        9.916968
0.696                  -1.021261        9.216912
0.698                  -1.056162        8.511182
0.7                    -1.092441        7.799803
0.702                  -1.130158        7.082821
0.704                  -1.169369         6.36029
0.706                  -1.210129        5.632278
0.708                  -1.252497        4.898867
0.71                   -1.296533        4.160147
0.712                  -1.342295        3.416227
0.714                  -1.389842        2.667225
0.716                  -1.439234        1.913274
0.718                  -1.490533        1.154518
0.72                   -1.543798       0.3911156
0.722                  -1.599091      -0.3767628
0.724                  -1.656473       -1.148934
0.726                  -1.716004       -1.925201
0.728                  -1.777748       -2.705356
0.73                   -1.841765       -3.489177
0.732                   -1.90812       -4.276431
0.734                  -1.976872        -5.06687
0.736                  -2.048086       -5.860236
0.738                  -2.121825       -6.656259
0.74                   -2.198151       -7.454653
0.742                  -2.277127       -8.255123
0.744                  -2.358816        -9.05736
0.746                  -2.443283       -9.861044
0.748                  -2.530593       -10.66584
0.75                   -2.620809        -11.4714
0.752                  -2.713995       -12.27737
0.754                  -2.810219       -13.08337
0.756                  -2.909545       -13.88902
0.758                  -3.012042       -14.69391
0.76                   -3.117773       -15.49764
0.762                  -3.226808       -16.29977
0.764                  -3.339218       -17.09987
0.766                   -3.45507       -17.89746
0.768                  -3.574437       -18.69209
0.77                   -3.697388       -19.48325
0.772                  -3.823998       -20.27043
0.774                   -3.95434        -21.0531
0.776                  -4.088492       -21.83072
0.778                   -4.22653       -22.60272
0.78                   -4.368534        -23.3685
0.782                  -4.514585       -24.12744
0.784                  -4.664767       -24.87892
0.786                  -4.819165       -25.62225
0.788                  -4.977868       -26.35675
0.79                   -5.140966       -27.08168
0.792                  -5.308552       -27.79627
0.794                  -5.480724       -28.49973
0.796                  -5.657582       -29.19123
0.798                  -5.839227       -29.86987
0.8                    -6.025767       -30.53473
0.802                  -6.217315       -31.18483
0.804                  -6.413985       -31.81913
0.806                  -6.615896       -32.43653
0.808                  -6.823173       -33.03587
0.81                   -7.035947        -33.6159
0.812                  -7.254351        -34.1753
0.814                  -7.478528       -34.71268
0.816                  -7.708621       -35.22651
0.818                  -7.944785       -35.71516
0.82                   -8.187178       -36.17691
0.822                  -8.435965       -36.60986
0.824                  -8.691318       -37.01199
0.826                  -8.953414       -37.38108
0.828                  -9.222439       -37.71477
0.83                   -9.498583       -38.01043
0.832                   -9.78204       -38.26521
0.834                  -10.07302       -38.47604
0.836                  -10.37171       -38.63946
0.838                  -10.67833       -38.75176
0.84                   -10.99308       -38.80877
0.842                  -11.31617       -38.80592
0.844                  -11.64778       -38.73817
0.846                   -11.9881       -38.59988
0.848                  -12.33728       -38.38483
0.85                   -12.69546       -38.08606
0.852                  -13.06271       -37.69582
0.854                  -13.43905       -37.20548
0.856                  -13.82443       -36.60543
0.858                  -14.21868       -35.88495
0.86                   -14.62146       -35.03213
0.862                  -15.03228       -34.03381
0.864                  -15.45036       -32.87548
0.866                  -15.87462       -31.54132
0.868                  -16.30359       -30.01428
0.87                   -16.73525       -28.27633
0.872                    -17.167       -26.30885
0.874                  -17.59547        -24.0934
0.876                  -18.01644       -21.61276
0.878                  -18.42472       -18.85249
0.88                   -18.81411       -15.80294
0.882                  -19.17749       -12.46176
0.884                  -19.50698       -8.836577
0.886                  -19.79435       -4.947583
0.888                  -20.03163       -0.829316
0.89                   -20.21181         3.46906
0.892                  -20.32965        7.885562
0.894                  -20.38235        12.34943
0.896                  -20.36992        16.78691
0.898                  -20.29517        21.12763
0.9                    -20.16333        25.31027
0.902                   -19.9813        29.28649
0.904                  -19.75694        33.02257
0.906                  -19.49829        36.49893
0.908                  -19.21301        39.70836
0.91                   -18.90801        42.65337
0.912                  -18.58924        45.34351
0.914                  -18.26167         47.7929
0.916                  -17.92931        50.01826
0.918                  -17.59532        52.03739
0.92                   -17.26214        53.86812
0.922                  -16.93158        55.52768
0.924                    -16.605        57.03221
0.926                  -16.28333        58.39657
0.928                  -15.96722        59.63428
0.93                   -15.65706        60.75751
0.932                  -15.35309        61.77712
0.934                  -15.05539        62.70281
0.936                  -14.76395        63.54314
0.938                  -14.47868        64.30567
0.94                   -14.19947        64.99714
0.942                  -13.92612        65.62343
0.944                  -13.65846        66.18976
0.946                  -13.39629        66.70072
0.948                   -13.1394        67.16035
0.95                   -12.88758        67.57228
0.952                  -12.64063        67.93965
0.954                  -12.39835        68.26528
0.956                  -12.16057        68.55169
0.958                   -11.9271        68.80109
0.96                   -11.69778        69.01546
0.962                  -11.47246        69.19662
0.964                  -11.25099        69.34612
0.966                  -11.03325        69.46547
0.968                  -10.81911        69.55596
0.97                   -10.60846        69.61879
0.972                   -10.4012        69.65506
0.974                  -10.19725        69.66576
0.976                  -9.996518        69.65189
0.978                  -9.798929        69.61426
0.98                   -9.604416        69.55373
0.982                  -9.412919        69.47108
0.984                  -9.224382        69.36701
0.986                  -9.038755        69.24221
0.988                  -8.855993         69.0974
0.99                   -8.676055        68.93316
0.992                  -8.498903        68.75013
0.994                  -8.324506        68.54891
0.996                  -8.152831        68.33008
0.998                   -7.98385        68.09418
1                      -7.817535        67.84177
1.002                  -7.653864        67.57341
1.004                  -7.492811        67.28959
1.006                  -7.334358        66.99086
1.008                   -7.17848        66.67768
1.01                    -7.02516        66.35057
1.012                  -6.874377           66.01
1.014                  -6.726111        65.65647
1.016                  -6.580345        65.29044
1.018                   -6.43706        64.91236
1.02                   -6.296236        64.52268
1.022                  -6.157857        64.12186
1.024                  -6.021902        63.71033
1.026                  -5.888351        63.28851
1.028                  -5.757188        62.85684
1.03                   -5.628392         62.4157
1.032                  -5.501942        61.96553
1.034                  -5.377819        61.50669
1.036                  -5.256002         61.0396
1.038                  -5.136471        60.56462
1.04                   -5.019203        60.08212
1.042                  -4.904178        59.59248
1.044                  -4.791373        59.09604
1.046                  -4.680766        58.59316
1.048                  -4.572334        58.08417
1.05                   -4.466052        57.56939
1.052                    -4.3619        57.04916
1.054                  -4.259852         56.5238
1.056                  -4.159884         55.9936
1.058                  -4.061971        55.45885
1.06                   -3.966089        54.91986
1.062                  -3.872212         54.3769
1.064                  -3.780317        53.83027
1.066                  -3.690377         53.2802
1.068                  -3.602367        52.72698
1.07                   -3.516259        52.17083
1.072                   -3.43203        51.61202
1.074                  -3.349652        51.05078
1.076                    -3.2691        50.48734
1.078                  -3.190347        49.92193
1.08                   -3.113366        49.35473
1.082                  -3.038132        48.78599
1.084                  -2.964618         48.2159
1.086                  -2.892797        47.64463
1.088                  -2.822642         47.0724
1.09                   -2.754128        46.49938
1.092                  -2.687228        45.92574
1.094                  -2.621916        45.35166
1.096                  -2.558164        44.77729
1.098                  -2.495948        44.20278
1.1                    -2.435242         43.6283
1.102                  -2.376016        43.05399
1.104                  -2.318249        42.47999
1.106                  -2.261913        41.90642
1.108                   -2.20698        41.33342
1.11                   -2.153429        40.76111
1.112                  -2.101231         40.1896
1.114                  -2.050364        39.61902
1.116                  -2.000802        39.04947
1.118                  -1.952517        38.48104
1.12                    -1.90549        37.91386
1.122                   -1.85969        37.34797
1.124                  -1.815099        36.78352
1.126                   -1.77169        36.22055
1.128                  -1.729439        35.65916
1.13                   -1.688324        35.09942
1.132                  -1.648321         34.5414
1.134                  -1.609407        33.98518
1.136                   -1.57156        33.43081
1.138                  -1.534755        32.87835
1.14                   -1.498973        32.32787
1.142                   -1.46419        31.77941
1.144                  -1.430384        31.23303
1.146                  -1.397536        30.68876
1.148                  -1.365622        30.14666
1.15                   -1.334622        29.60676
1.152                  -1.304516         29.0691
1.154                  -1.275283        28.53371
1.156                  -1.246905        28.00062
1.158                  -1.219359        27.46986
1.16                   -1.192628        26.94146
1.162                  -1.166691        26.41542
1.164                   -1.14153        25.89179
1.166                  -1.117126        25.37056
1.168                  -1.093461        24.85175
1.17                   -1.070517        24.33538
1.172                  -1.048276        23.82145
1.174                   -1.02672        23.30997
1.176                  -1.005833        22.80095
1.178                 -0.9855987        22.29438
1.18                  -0.9659995        21.79027
1.182                 -0.9470175        21.28861
1.184                 -0.9286409        20.78939
1.186                 -0.9108495        20.29262
1.188                 -0.8936317        19.79828
1.19                  -0.8769702        19.30636
1.192                 -0.8608516        18.81686
1.194                 -0.8452612        18.32975
1.196                 -0.8301847        17.84502
1.198                 -0.8156087        17.36265
1.2                   -0.8015198        16.88263
1.202                 -0.7879051        16.40493
1.204                 -0.7747508        15.92954
1.206                 -0.7620457        15.45642
1.208                 -0.7497771        14.98556
1.21                  -0.7379326        14.51693
1.212                 -0.7265026         14.0505
1.214                 -0.7154742        13.58624
1.216                 -0.7048375        13.12413
1.218                  -0.694581        12.66413
1.22                  -0.6846968        12.20623
1.222                 -0.6751736        11.75035
1.224                  -0.666002        11.29651
1.226                 -0.6571722        10.84466
1.228                 -0.6486765        10.39477
1.23                   -0.640507        9.946777
1.232                 -0.6326532        9.500689
1.234                 -0.6251094        9.056417
1.236                 -0.6178663        8.613974
1.238                 -0.6109189        8.173306
1.24                   -0.604258        7.734378
1.242                  -0.597878        7.297152
1.244                 -0.5917726        6.861594
1.246                 -0.5859361        6.427665
1.248                 -0.5803617         5.99533
1.25                  -0.5750454        5.564553
1.252                 -0.5699811        5.135298
1.254                 -0.5651636        4.707527
1.256                 -0.5605889        4.281207
1.258                  -0.556253        3.856302
1.26                  -0.5521496        3.432775
1.262                 -0.5482774        3.010595
1.264                 -0.5446312        2.589727
1.266                  -0.541208        2.170136
1.268                 -0.5380037         1.75179
1.27                  -0.5350167        1.334657
1.272                 -0.5322441       0.9187054
1.274                 -0.5296809       0.5039033
1.276                 -0.5273273       0.0902209
1.278                 -0.5251778      -0.3223719
1.28                  -0.5232337      -0.7339041
1.282                 -0.5214916       -1.144404
1.284                 -0.5199483         -1.5539
1.286                 -0.5186031       -1.962418
1.288                 -0.5174538       -2.369986
1.29                  -0.5165003       -2.776628
1.292                 -0.5157386        -3.18237
1.294                 -0.5151687       -3.587237
1.296                 -0.5147892       -3.991251
1.298                 -0.5145995       -4.394437
1.3                   -0.5145977       -4.796818
1.302                 -0.5147808       -5.198413
1.304                 -0.5151509       -5.599247
1.306                  -0.515705       -5.999339
1.308                 -0.5164423        -6.39871
1.31                  -0.5173619       -6.797382
1.312                 -0.5184631       -7.195372
1.314                 -0.5197446       -7.592702
1.316                 -0.5212059        -7.98939
1.318                 -0.5228452       -8.385455
1.32                  -0.5246622       -8.780916
1.322                 -0.5266577       -9.175792
1.324                 -0.5288286       -9.570101
1.326                 -0.5311751       -9.963862
1.328                 -0.5336952       -10.35709
1.33                  -0.5363901       -10.74981
1.332                 -0.5392562       -11.14204
1.334                 -0.5422947       -11.53379
1.336                 -0.5455058       -11.92509
1.338                 -0.5488868       -12.31595
1.34                  -0.5524378       -12.70639
1.342                 -0.5561582       -13.09643
1.344                 -0.5600481       -13.48609
1.346                 -0.5641054        -13.8754
1.348                  -0.568331       -14.26436
1.35                  -0.5727238       -14.65301
1.352                 -0.5772831       -15.04135
1.354                 -0.5820095       -15.42942
1.356                 -0.5869016       -15.81723
1.358                 -0.5919609        -16.2048
1.36                  -0.5971855       -16.59217
1.362                 -0.6025757       -16.97934
1.364                 -0.6081322       -17.36634
1.366                 -0.6138555       -17.75319
1.368                  -0.619745       -18.13992
1.37                  -0.6258016       -18.52655
1.372                 -0.6320258       -18.91311
1.374                 -0.6384179       -19.29961
1.376                 -0.6449789       -19.68609
1.378                 -0.6517092       -20.07255
1.38                  -0.6586102       -20.45904
1.382                 -0.6656833       -20.84557
1.384                 -0.6729289       -21.23217
1.386                   -0.68035       -21.61886
1.388                 -0.6879467       -22.00567
1.39                  -0.6957204       -22.39262
1.392                 -0.7036742       -22.77974
1.394                 -0.7118088       -23.16704
1.396                 -0.7201276       -23.55456
1.398                  -0.728633       -23.94232
1.4                   -0.7373256       -24.33034
1.402                 -0.7462091       -24.71865
1.404                 -0.7552865       -25.10725
1.406                 -0.7645602        -25.4962
1.408                 -0.7740338       -25.88549
1.41                  -0.7837095       -26.27516
1.412                 -0.7935895       -26.66523
1.414                 -0.8036807       -27.05571
1.416                 -0.8139842       -27.44664
1.418                 -0.8245016       -27.83801
1.42                  -0.8352408       -28.22987
1.422                  -0.846203       -28.62223
1.424                  -0.857393        -29.0151
1.426                 -0.8688151        -29.4085
1.428                 -0.8804727       -29.80246
1.43                  -0.8923706       -30.19697
1.432                 -0.9045121       -30.59208
1.434                 -0.9169034       -30.98779
1.436                 -0.9295483       -31.38411
1.438                 -0.9424504       -31.78105
1.44                  -0.9556149       -32.17864
1.442                  -0.969047       -32.57689
1.444                 -0.9827514        -32.9758
1.446                 -0.9967328       -33.37539
1.448                  -1.010997       -33.77568
1.45                   -1.025547       -34.17667
1.452                  -1.040389       -34.57838
1.454                  -1.055529       -34.98081
1.456                  -1.070971       -35.38398
1.458                  -1.086722       -35.78789
1.46                   -1.102784       -36.19255
1.462                  -1.119165       -36.59798
1.464                  -1.135869       -37.00418
1.466                  -1.152903       -37.41115
1.468                  -1.170271       -37.81892
1.47                    -1.18798       -38.22747
1.472                  -1.206034       -38.63683
1.474                   -1.22444       -39.04699
1.476                  -1.243204       -39.45798
1.478                  -1.262332       -39.86978
1.48                   -1.281829       -40.28241
1.482                  -1.301701       -40.69587
1.484                  -1.321955       -41.11019
1.486                  -1.342596       -41.52534
1.488                  -1.363632       -41.94136
1.49                   -1.385068       -42.35822
1.492                  -1.406914       -42.77596
1.494                  -1.429172       -43.19456
1.496                  -1.451852       -43.61405
1.498                  -1.474959       -44.03441
1.5                    -1.498502       -44.45566
1.502                  -1.522488       -44.87781
1.504                  -1.546923       -45.30084
1.506                  -1.571817       -45.72479
1.508                  -1.597176       -46.14963
1.51                   -1.623009        -46.5754
1.512                  -1.649324       -47.00207
1.514                  -1.676129       -47.42966
1.516                  -1.703435       -47.85817
1.518                  -1.731247        -48.2876
1.52                   -1.759577       -48.71797
1.522                  -1.788434       -49.14925
1.524                  -1.817827       -49.58147
1.526                  -1.847766        -50.0146
1.528                  -1.878261       -50.44867
1.53                   -1.909324       -50.88367
1.532                  -1.940963       -51.31959
1.534                   -1.97319       -51.75644
1.536                  -2.006017        -52.1942
1.538                  -2.039453       -52.63286
1.54                   -2.073513       -53.07243
1.542                  -2.108208       -53.51291
1.544                  -2.143549       -53.95426
1.546                  -2.179549        -54.3965
1.548                  -2.216223       -54.83961
1.55                   -2.253581       -55.28356
1.552                  -2.291639       -55.72837
1.554                  -2.330409       -56.17398
1.556                  -2.369905        -56.6204
1.558                  -2.410145        -57.0676
1.56                    -2.45114       -57.51557
1.562                  -2.492906       -57.96428
1.564                  -2.535457       -58.41368
1.566                   -2.57881       -58.86377
1.568                  -2.622981       -59.31451
1.57                   -2.667986       -59.76586
1.572                   -2.71384       -60.21781
1.574                  -2.760562       -60.67027
1.576                  -2.808168       -61.12327
1.578                  -2.856674       -61.57669
1.58                     -2.9061       -62.03054
1.582                  -2.956462       -62.48474
1.584                  -3.007779       -62.93926
1.586                   -3.06007       -63.39403
1.588                  -3.113353         -63.849
1.59                   -3.167646        -64.3041
1.592                   -3.22297       -64.75926
1.594                  -3.279343       -65.21442
1.596                  -3.336786       -65.66952
1.598                  -3.395321       -66.12448
1.6                    -3.454964       -66.57921
1.602                  -3.515738       -67.03362
1.604                  -3.577664       -67.48764
1.606                  -3.640763       -67.94118
1.608                  -3.705058       -68.39415
1.61                   -3.770569       -68.84644
1.612                  -3.837321       -69.29796
1.614                  -3.905333       -69.74858
1.616                  -3.974629       -70.19822
1.618                  -4.045233       -70.64674
1.62                   -4.117167       -71.09402
1.622                  -4.190457       -71.53996
1.624                  -4.265126        -71.9844
1.626                  -4.341197       -72.42722
1.628                  -4.418698       -72.86829
1.63                   -4.497653       -73.30744
1.632                  -4.578086       -73.74452
1.634                  -4.660024       -74.17938
1.636                  -4.743496       -74.61187
1.638                  -4.828525       -75.04179
1.64                   -4.915141       -75.46899
1.642                  -5.003371       -75.89325
1.644                  -5.093242       -76.31441
1.646                  -5.184786       -76.73224
1.648                  -5.278028       -77.14658
1.65                   -5.373001       -77.55716
1.652                  -5.469734       -77.96379
1.654                  -5.568258       -78.36621
1.656                  -5.668607       -78.76419
1.658                  -5.770808       -79.15747
1.66                   -5.874895       -79.54577
1.662                  -5.980905       -79.92885
1.664                  -6.088868       -80.30637
1.666                   -6.19882       -80.67804
1.668                  -6.310795       -81.04357
1.67                    -6.42483       -81.40262
1.672                  -6.540961       -81.75481
1.674                  -6.659225       -82.09979
1.676                   -6.77966       -82.43721
1.678                  -6.902303       -82.76663
1.68                   -7.027196       -83.08765
1.682                  -7.154375       -83.39982
1.684                  -7.283883       -83.70266
1.686                   -7.41576       -83.99572
1.688                  -7.550046       -84.27842
1.69                   -7.686786       -84.55031
1.692                   -7.82602       -84.81074
1.694                  -7.967791       -85.05915
1.696                  -8.112144       -85.29487